
#(C) 2016 by FIZ Karlsruhe - Leibniz Institute for Information Infrastructure.  All rights reserved.
data_421144-ICSD
_database_code_ICSD 421144
_audit_creation_date 2011-08-01
_chemical_name_systematic 'Pentaaqua plutonium dioxide bis(chlorate(VII))'
_chemical_formula_structural '(Pu O2 (H2 O)5) (Cl O4)2'
_chemical_formula_sum 'H10 Cl2 O15 Pu1'
_exptl_crystal_density_diffrn 3.05
_cell_measurement_temperature 100.
_publ_section_title

;
Synthesis and single crystal X-ray diffraction study of U(VI), Np(VI) and
Pu(VI) perchlorate hydrates
;
loop_
_citation_id
_citation_journal_full
_citation_year
_citation_journal_volume
_citation_page_first
_citation_page_last
_citation_journal_id_ASTM
primary Radiokhimiya 2010 52 318 323 RADKAU
loop_
_publ_author_name
'Grigor'ev, M.S.'
'Krot, N.N.'
_cell_length_a 27.3268(7)
_cell_length_b 31.9563(9)
_cell_length_c 5.6299(2)
_cell_angle_alpha 90.
_cell_angle_beta 90.
_cell_angle_gamma 90.
_cell_volume 4916.39
_cell_formula_units_Z 16
_symmetry_space_group_name_H-M 'F d d 2'
_symmetry_Int_Tables_number 43
_refine_ls_R_factor_all 0.0174
loop_
_symmetry_equiv_pos_site_id
_symmetry_equiv_pos_as_xyz
1 'x+1/4, -y+1/4, z+1/4'
2 '-x+1/4, y+1/4, z+1/4'
3 '-x, -y, z'
4 'x, y, z'
5 'x+1/4, -y+3/4, z+3/4'
6 '-x+1/4, y+3/4, z+3/4'
7 '-x, -y+1/2, z+1/2'
8 'x, y+1/2, z+1/2'
9 'x+3/4, -y+1/4, z+3/4'
10 '-x+3/4, y+1/4, z+3/4'
11 '-x+1/2, -y, z+1/2'
12 'x+1/2, y, z+1/2'
13 'x+3/4, -y+3/4, z+1/4'
14 '-x+3/4, y+3/4, z+1/4'
15 '-x+1/2, -y+1/2, z'
16 'x+1/2, y+1/2, z'
loop_
_atom_type_symbol
_atom_type_oxidation_number
Pu6+ 6
Cl7+ 7
O2- -2
H1+ 1
O2- -2
H1+ 1
O2- -2
H1+ 1
O2- -2
H1+ 1
O2- -2
H1+ 1
O2- -2
loop_
_atom_site_label
_atom_site_type_symbol
_atom_site_symmetry_multiplicity
_atom_site_Wyckoff_symbol
_atom_site_fract_x
_atom_site_fract_y
_atom_site_fract_z
_atom_site_B_iso_or_equiv
_atom_site_occupancy
_atom_site_attached_hydrogens
Pu1 Pu6+ 16 b 0.091519(2) 0.098578(2) 0.769358(17) 0.01028(1) 1 0
Cl1 Cl7+ 16 b 0.232837(17) 0.048435(15) 0.38968(9) 0.01370(7) 1 0
Cl2 Cl7+ 16 b 0.179683(19) 0.215230(15) 0.38565(9) 0.01572(8) 1 0
O1 O2- 16 b 0.05899(6) 0.09570(4) 1.0319(3) 0.0165(2) 1 0
O2 O2- 16 b 0.12436(6) 0.10128(5) 0.5059(3) 0.0164(3) 1 0
O3 O2- 16 b 0.14763(6) 0.04451(5) 0.8888(3) 0.0162(3) 1 0
H1 H1+ 16 b 0.1465(11) 0.0314(9) 1.014(4) 0.024(7) 1 0
H2 H1+ 16 b 0.1745(10) 0.0409(13) 0.822(6) 0.044(11) 1 0
O4 O2- 16 b 0.05330(6) 0.03463(5) 0.6395(3) 0.0176(3) 1 0
H3 H1+ 16 b 0.0593(15) 0.0258(11) 0.497(4) 0.042(11) 1 0
H4 H1+ 16 b 0.0456(14) 0.0118(8) 0.711(6) 0.038(11) 1 0
O5 O2- 16 b 0.01818(5) 0.11342(5) 0.5454(3) 0.0176(3) 1 0
H5 H1+ 16 b 0.0097(12) 0.1369(6) 0.495(7) 0.028(8) 1 0
H6 H1+ 16 b 0.0005(14) 0.0959(8) 0.477(7) 0.043(12) 1 0
O6 O2- 16 b 0.08212(5) 0.17319(5) 0.7552(4) 0.0178(3) 1 0
H7 H1+ 16 b 0.0891(11) 0.1859(11) 0.627(4) 0.026(9) 1 0
H8 H1+ 16 b 0.0639(13) 0.1891(11) 0.831(5) 0.042(12) 1 0
O7 O2- 16 b 0.15902(6) 0.12959(5) 0.9839(3) 0.0190(3) 1 0
H9 H1+ 16 b 0.1749(15) 0.1133(11) 1.073(7) 0.049(13) 1 0
H10 H1+ 16 b 0.160(2) 0.1535(10) 1.050(12) 0.12(3) 1 0
O8 O2- 16 b 0.19246(6) 0.02069(6) 0.3495(3) 0.0212(3) 1 0
O9 O2- 16 b 0.27861(6) 0.02864(6) 0.3332(3) 0.0215(3) 1 0
O10 O2- 16 b 0.22824(6) 0.08569(5) 0.2454(4) 0.0241(4) 1 0
O11 O2- 16 b 0.23274(7) 0.06047(6) 0.6387(3) 0.0203(3) 1 0
O12 O2- 16 b 0.20455(9) 0.20744(7) 0.1656(4) 0.0354(5) 1 0
O13 O2- 16 b 0.12909(8) 0.20378(9) 0.3544(4) 0.0386(5) 1 0
O14 O2- 16 b 0.18171(11) 0.25933(6) 0.4333(4) 0.0403(6) 1 0
O15 O2- 16 b 0.19982(8) 0.19239(7) 0.5794(4) 0.0348(5) 1 0
loop_
_atom_site_aniso_label
_atom_site_aniso_type_symbol
_atom_site_aniso_U_11
_atom_site_aniso_U_22
_atom_site_aniso_U_33
_atom_site_aniso_U_12
_atom_site_aniso_U_13
_atom_site_aniso_U_23
Pu1 Pu6+ 0.01096(2) 0.01162(2) 0.00825(2) 0.00121(2) 0.00055(2) -0.00024(2)
Cl1 Cl7+ 0.01265(18) 0.01543(18) 0.01304(16) -0.00041(15) 0.00011(14)
0.00042(15)
Cl2 Cl7+ 0.0206(2) 0.01338(17) 0.01321(17) 0.00166(16) 0.00100(16) 0.00114(15)
O1 O2- 0.0184(6) 0.0193(6) 0.0118(6) 0.0011(5) 0.0026(6) -0.0002(6)
O2 O2- 0.0161(6) 0.0209(6) 0.0122(6) 0.0023(5) 0.0040(6) 0.0019(6)
O3 O2- 0.0152(6) 0.0168(6) 0.0167(6) 0.0032(5) 0.0019(5) 0.0039(5)
O4 O2- 0.0231(7) 0.0144(6) 0.0154(6) -0.0016(5) -0.0016(6) -0.0007(5)
O5 O2- 0.0169(6) 0.0158(6) 0.0203(8) 0.0027(5) -0.0054(6) 0.0002(6)
O6 O2- 0.0193(6) 0.0146(5) 0.0196(7) 0.0015(4) 0.0052(7) 0.0017(6)
O7 O2- 0.0202(6) 0.0175(6) 0.0194(9) -0.0013(6) -0.0068(6) -0.0002(5)
O8 O2- 0.0220(7) 0.0227(8) 0.0188(7) -0.0085(6) -0.0022(6) 0.0008(6)
O9 O2- 0.0190(7) 0.0216(7) 0.0240(8) 0.0056(6) 0.0049(6) 0.0019(6)
O10 O2- 0.0191(6) 0.0214(6) 0.0318(10) 0.0006(6) -0.0016(7) 0.0113(8)
O11 O2- 0.0239(8) 0.0208(7) 0.0162(7) -0.0037(6) 0.0016(6) -0.0035(6)
O12 O2- 0.0431(12) 0.0361(11) 0.0270(9) 0.0076(9) 0.0194(9) 0.0003(8)
O13 O2- 0.0273(9) 0.0613(15) 0.0271(9) -0.0162(10) -0.0071(8) 0.0114(10)
O14 O2- 0.0819(18) 0.0160(8) 0.0231(9) 0.0005(10) -0.0136(10) -0.0021(7)
O15 O2- 0.0338(10) 0.0413(11) 0.0294(10) 0.0119(9) -0.0024(8) 0.0192(8)
#End of TTdata_421144-ICSD